; md.mdp — 50 ns production at 310 K, 1 bar
; No position restraints. Standard biomolecular settings.

integrator      = md
nsteps          = 25000000       ; 50 ns with 2 fs timestep
dt              = 0.002
nstxout         = 0
nstvout         = 0
nstenergy       = 5000
nstlog          = 5000
nstxout-compressed = 5000        ; save coords every 10 ps -> 5000 frames

continuation    = yes
constraint_algorithm = lincs
constraints     = h-bonds
lincs_iter      = 1
lincs_order     = 4

cutoff-scheme   = Verlet
ns_type         = grid
nstlist         = 20
rcoulomb        = 1.0
rvdw            = 1.0
coulombtype     = PME
pme_order       = 4
fourierspacing  = 0.16

tcoupl          = V-rescale
tc-grps         = Protein Non-Protein
tau_t           = 0.1   0.1
ref_t           = 310   310

pcoupl          = C-rescale
pcoupltype      = isotropic
tau_p           = 2.0
ref_p           = 1.0
compressibility = 4.5e-5

pbc             = xyz
DispCorr        = EnerPres
gen_vel         = no
