; nvt.mdp — 100 ps NVT equilibration at 310 K
; Position restraints on protein heavy atoms (via posre.itp generated by pdb2gmx)

define          = -DPOSRES
integrator      = md
nsteps          = 50000          ; 100 ps with 2 fs timestep
dt              = 0.002
nstxout         = 0
nstvout         = 0
nstenergy       = 500
nstlog          = 500
nstxout-compressed = 5000

continuation    = no
constraint_algorithm = lincs
constraints     = h-bonds
lincs_iter      = 1
lincs_order     = 4

cutoff-scheme   = Verlet
ns_type         = grid
nstlist         = 10
rcoulomb        = 1.0
rvdw            = 1.0
coulombtype     = PME
pme_order       = 4
fourierspacing  = 0.16

tcoupl          = V-rescale
tc-grps         = Protein Non-Protein
tau_t           = 0.1   0.1
ref_t           = 310   310

pcoupl          = no
pbc             = xyz
DispCorr        = EnerPres

gen_vel         = yes
gen_temp        = 310
gen_seed        = -1
